LAMMPS data file. CGCMM style. atom_style full generated by VMD/TopoTools v1.7 on Thu Nov 14 11:52:41 EST 2019
 1055 atoms
 1054 bonds
 1053 angles
 4 atom types
 2 bond types
 1 angle types
 -50.000000 50.000000  xlo xhi
 -50.000000 50.000000  ylo yhi
 -50.000000 50.000000  zlo zhi

 Masses

1 1.0
2 1.0
3 1.0
4 1.0

 Atoms

1 1 1 0.000000 0.000000 0.000000 0.000000
2 1 1 0.000000 1.000000 0.000000 0.000000
3 1 1 0.000000 1.558148 -0.759455 -0.334214
4 1 1 0.000000 1.798691 -1.517741 0.271708
5 1 1 0.000000 2.338054 -1.993962 0.966187
6 1 1 0.000000 2.105861 -2.964618 1.028738
7 1 1 0.000000 1.489988 -2.222263 1.292572
8 1 1 0.000000 0.663003 -2.646014 0.923072
9 1 1 0.000000 1.048032 -3.034211 1.760362
10 1 1 0.000000 1.131255 -3.341320 0.812333
11 1 2 0.000000 0.148948 -3.474056 0.944448
12 1 1 0.000000 -0.086282 -4.306505 1.446141
13 1 1 0.000000 0.253828 -4.055652 2.352451
14 1 1 0.000000 0.525480 -3.475329 3.120195
15 1 1 0.000000 0.469791 -4.410277 3.470584
16 1 1 0.000000 1.347865 -4.143043 3.867538
17 1 1 0.000000 2.242872 -3.703648 3.790762
18 1 1 0.000000 1.726758 -2.850804 3.711486
19 1 1 0.000000 1.890867 -2.422299 4.599997
20 1 1 0.000000 2.059465 -2.868964 5.478669
21 1 1 0.000000 1.062330 -2.796302 5.457639
22 1 1 0.000000 0.623303 -1.902777 5.363465
23 1 1 0.000000 -0.032590 -1.227490 5.700797
24 1 1 0.000000 0.553664 -0.447157 5.918483
25 1 1 0.000000 1.284594 -0.724481 5.294918
26 1 1 0.000000 2.266919 -0.903947 5.241722
27 1 1 0.000000 2.850058 -1.256775 5.973474
28 1 1 0.000000 3.284690 -1.546824 6.826097
29 1 1 0.000000 2.952023 -1.467862 7.765830
30 1 1 0.000000 3.011316 -1.497083 8.763643
31 1 1 0.000000 2.204602 -1.817633 8.267197
32 1 1 0.000000 2.731890 -2.619655 7.986611
33 1 1 0.000000 3.047398 -2.641695 7.037945
34 1 1 0.000000 3.996666 -2.526841 7.330690
35 1 1 0.000000 4.832160 -2.670873 6.800403
36 1 1 0.000000 4.599699 -3.256100 6.023570
37 1 1 0.000000 4.563988 -2.383322 5.536762
38 1 1 0.000000 4.682306 -3.338049 5.809702
39 1 1 0.000000 4.622617 -3.144671 6.789009
40 1 1 0.000000 5.474319 -2.798736 6.395393
41 1 1 0.000000 5.694218 -2.636531 5.433450
42 1 1 0.000000 6.381098 -1.989768 5.764952
43 1 1 0.000000 5.599048 -2.473634 5.372177
44 1 1 0.000000 5.917381 -2.666145 4.443951
45 1 1 0.000000 5.546218 -3.024427 3.587288
46 1 1 0.000000 6.520709 -2.812085 3.659946
47 1 1 0.000000 7.273692 -3.453375 3.807471
48 1 1 0.000000 6.464194 -3.195805 4.335078
49 1 1 0.000000 6.342946 -4.187437 4.290750
50 1 1 0.000000 6.056363 -4.711451 3.488703
51 1 1 0.000000 5.566114 -5.542221 3.752289
52 1 1 0.000000 6.422459 -6.026921 3.930442
53 1 1 0.000000 6.724572 -6.975431 3.835270
54 1 1 0.000000 7.227217 -7.761756 4.194493
55 1 1 0.000000 7.989875 -7.119851 4.115057
56 1 1 0.000000 8.468622 -6.418383 3.587094
57 1 1 0.000000 7.752738 -5.765038 3.833366
58 1 1 0.000000 6.859344 -5.348311 4.001253
59 1 1 0.000000 6.307605 -6.153027 4.220379
60 1 1 0.000000 6.872849 -6.977220 4.185664
61 1 1 0.000000 6.574538 -7.756742 4.736442
62 1 1 0.000000 6.393853 -7.183841 5.535903
63 1 1 0.000000 7.153321 -7.398373 6.150056
64 1 1 0.000000 7.359303 -6.933883 7.011346
65 1 1 0.000000 7.692959 -6.916442 6.068813
66 1 1 0.000000 8.676270 -7.072483 5.975272
67 1 1 0.000000 8.632810 -6.279439 6.582885
68 1 1 0.000000 9.435911 -5.690326 6.493584
69 1 1 0.000000 9.383574 -5.994787 7.444670
70 1 1 0.000000 8.642648 -6.481748 7.907161
71 1 1 0.000000 7.692700 -6.302065 7.651598
72 1 1 0.000000 6.751252 -6.180328 7.966011
73 1 1 0.000000 5.905931 -5.657715 8.076950
74 1 1 0.000000 5.627475 -5.020877 8.795907
75 1 1 0.000000 6.040223 -4.136810 8.576670
76 1 1 0.000000 6.231909 -3.732407 7.682403
77 1 1 0.000000 5.379932 -4.159298 7.379254
78 1 1 0.000000 6.019242 -4.639465 6.778652
79 1 1 0.000000 6.828560 -4.998046 7.243867
80 1 1 0.000000 7.734144 -5.064238 6.824897
81 1 1 0.000000 7.712300 -5.559068 5.956182
82 1 1 0.000000 8.355420 -5.927039 6.627743
83 1 1 0.000000 8.979514 -6.708388 6.628069
84 1 1 0.000000 9.255894 -7.648778 6.429876
85 1 1 0.000000 10.214827 -7.388497 6.542578
86 1 1 0.000000 10.499986 -8.340225 6.429005
87 1 1 0.000000 9.683321 -7.800720 6.224085
88 1 1 0.000000 9.395196 -6.844304 6.271544
89 1 1 0.000000 9.507952 -5.855740 6.171401
90 1 1 0.000000 9.840252 -5.552622 5.278263
91 1 1 0.000000 10.470885 -5.291055 6.008938
92 1 1 0.000000 11.131022 -5.393129 6.753115
93 1 1 0.000000 11.138317 -5.155155 7.724360
94 1 3 0.000000 11.426022 -4.439655 8.360979
95 1 1 0.000000 12.311818 -4.637683 7.941275
96 1 1 0.000000 13.214124 -4.803017 8.339405
97 1 1 0.000000 13.397864 -4.189234 9.107201
98 1 1 0.000000 13.582630 -5.130764 8.825450
99 1 1 0.000000 14.156596 -5.949032 8.857060
100 1 1 0.000000 14.190295 -6.334181 9.779299
101 1 1 0.000000 13.460024 -5.742674 9.437503
102 1 1 0.000000 13.824935 -6.484752 8.875222
103 1 1 0.000000 13.819278 -6.043142 7.978033
104 1 1 0.000000 13.328914 -5.171795 7.960740
105 1 1 0.000000 13.433534 -4.853853 7.018420
106 1 1 0.000000 14.122886 -4.762993 6.299714
107 1 1 0.000000 14.553798 -5.252132 7.058040
108 1 1 0.000000 13.807678 -4.619447 7.265445
109 1 1 0.000000 13.615110 -4.441211 8.230405
110 1 1 0.000000 13.005426 -4.683681 8.985053
111 1 1 0.000000 12.347965 -4.562258 9.728694
112 1 1 0.000000 12.019949 -4.300935 10.636503
113 1 1 0.000000 12.536251 -3.763592 9.969649
114 1 1 0.000000 13.441184 -3.617586 10.369372
115 1 1 0.000000 12.924820 -3.036016 9.740768
116 1 1 0.000000 12.523342 -2.627393 8.921107
117 1 1 0.000000 12.818163 -1.675982 9.009968
118 1 1 0.000000 12.125931 -1.449424 8.324777
119 1 1 0.000000 12.971253 -1.978446 8.399375
120 1 1 0.000000 12.479281 -2.322989 9.198908
121 1 1 0.000000 11.562562 -2.712125 9.108354
122 1 1 0.000000 10.864082 -3.427113 9.138642
123 1 1 0.000000 10.352603 -3.895708 8.418359
124 1 1 0.000000 10.888523 -3.579414 7.635577
125 1 1 0.000000 11.595383 -3.416168 6.947318
126 1 1 0.000000 11.293344 -4.369419 6.938138
127 1 1 0.000000 10.874286 -4.960164 6.248638
128 1 1 0.000000 11.446619 -4.810708 5.442351
129 1 1 0.000000 11.879749 -5.498785 4.860158
130 1 1 0.000000 11.757238 -6.302259 4.277561
131 1 1 0.000000 12.605983 -6.578888 3.826885
132 1 1 0.000000 13.037727 -6.581009 4.728879
133 1 1 0.000000 13.064878 -7.146407 5.553251
134 1 1 0.000000 13.679172 -7.894479 5.302191
135 1 1 0.000000 14.088942 -8.667747 4.818306
136 1 1 0.000000 14.183541 -8.243405 3.917759
137 1 1 0.000000 14.448879 -7.446422 3.375161
138 1 1 0.000000 14.743081 -7.626581 2.436551
139 1 1 0.000000 14.574493 -7.294293 1.508562
140 1 1 0.000000 14.015089 -7.152264 0.691926
141 1 1 0.000000 13.928874 -6.603041 -0.139291
142 1 1 0.000000 14.103874 -5.725877 -0.586457
143 1 1 0.000000 13.782222 -6.253457 -1.372714
144 1 1 0.000000 13.185464 -6.985284 -1.701818
145 1 1 0.000000 12.225103 -7.067201 -1.435368
146 1 1 0.000000 11.928995 -7.731049 -2.122118
147 1 1 0.000000 11.013501 -7.364252 -2.287441
148 1 1 0.000000 10.133880 -7.093224 -2.678351
149 1 1 0.000000 10.143552 -6.159956 -3.037401
150 1 1 0.000000 10.249465 -5.825715 -3.973919
151 1 1 0.000000 11.234571 -5.977894 -4.053968
152 1 1 0.000000 11.737182 -5.193403 -3.690712
153 1 1 0.000000 11.560857 -4.211861 -3.616648
154 1 1 0.000000 11.934713 -3.646529 -2.881372
155 1 1 0.000000 11.858565 -4.527274 -2.413943
156 1 1 0.000000 11.183463 -4.952853 -1.811349
157 1 1 0.000000 11.886135 -4.274398 -2.025708
158 1 1 0.000000 11.589125 -3.606162 -2.707798
159 1 1 0.000000 11.473938 -3.774223 -3.686821
160 1 1 0.000000 10.755040 -3.107015 -3.491836
161 1 1 0.000000 10.027963 -2.428044 -3.593609
162 1 1 0.000000 10.090387 -1.502004 -3.221381
163 1 1 0.000000 9.884063 -0.528091 -3.126921
164 1 1 0.000000 9.617370 -0.173102 -2.230898
165 1 1 0.000000 10.363495 0.399119 -1.890515
166 1 1 0.000000 9.885992 0.068024 -1.076656
167 1 1 0.000000 10.296487 0.885600 -1.480466
168 1 1 0.000000 9.484276 1.372573 -1.159265
169 1 3 0.000000 9.335886 1.863187 -2.017914
170 1 1 0.000000 9.074149 1.684819 -2.966428
171 1 1 0.000000 9.798418 1.317140 -3.549734
172 1 1 0.000000 9.304345 1.181017 -4.408432
173 1 1 0.000000 9.171581 1.741090 -5.226168
174 1 1 0.000000 9.790566 1.670485 -6.008390
175 1 1 0.000000 9.619595 0.697634 -5.852405
176 1 1 0.000000 9.012029 0.365091 -5.131102
177 1 1 0.000000 9.403355 -0.418943 -5.612925
178 1 1 0.000000 8.948209 -0.508498 -6.498827
179 1 1 0.000000 8.307060 0.086531 -6.983460
180 1 1 0.000000 7.591187 -0.592061 -7.147897
181 1 1 0.000000 7.463083 -1.550795 -7.401704
182 1 1 0.000000 6.650984 -2.126191 -7.304676
183 1 1 0.000000 5.980469 -1.527141 -6.867014
184 1 1 0.000000 5.373895 -0.778640 -6.599032
185 1 1 0.000000 4.686499 -1.166700 -7.212950
186 1 1 0.000000 3.731386 -1.283767 -7.485081
187 1 1 0.000000 2.785668 -1.494664 -7.732345
188 1 1 0.000000 2.840388 -0.578674 -8.129797
189 1 1 0.000000 2.589807 0.289027 -7.700491
190 1 1 0.000000 2.905668 0.885233 -8.438576
191 1 1 0.000000 2.633430 0.842108 -9.399839
192 1 1 0.000000 2.903460 -0.119310 -9.347296
193 1 1 0.000000 2.239772 -0.286753 -10.076324
194 1 1 0.000000 1.536510 0.371695 -10.344408
195 1 1 0.000000 0.609619 0.005311 -10.262946
196 1 1 0.000000 -0.192199 -0.546785 -10.491589
197 1 1 0.000000 -0.955323 -0.082400 -10.941021
198 1 1 0.000000 -1.393991 0.621670 -10.382581
199 1 1 0.000000 -1.816837 1.519105 -10.256840
200 1 1 0.000000 -1.946691 1.421069 -11.243515
201 1 1 0.000000 -1.581924 2.218637 -11.723963
202 1 1 0.000000 -1.188648 2.934452 -11.146952
203 1 1 0.000000 -1.896133 2.262183 -11.364939
204 1 1 0.000000 -0.970952 2.296466 -11.742912
205 1 1 0.000000 -0.537010 1.399813 -11.830707
206 1 1 0.000000 -1.104397 0.608540 -12.058649
207 1 1 0.000000 -0.217652 0.645842 -12.519401
208 1 1 0.000000 0.633315 0.927595 -12.962651
209 1 1 0.000000 1.239007 1.654395 -12.638769
210 1 1 0.000000 0.611100 2.368597 -12.948043
211 1 1 0.000000 1.296938 3.096283 -12.938054
212 1 1 0.000000 2.251691 2.829888 -12.805845
213 1 1 0.000000 2.082232 2.290648 -11.980919
214 1 1 0.000000 2.251764 1.671740 -11.213969
215 1 1 0.000000 1.283008 1.890267 -11.096678
216 1 1 0.000000 0.672110 1.750554 -11.875962
217 1 1 0.000000 0.059315 1.751523 -12.666203
218 1 1 0.000000 -0.257345 1.740902 -13.614683
219 1 1 0.000000 -0.925744 2.352223 -14.038391
220 1 1 0.000000 0.054652 2.165766 -14.102090
221 1 1 0.000000 0.862265 1.655312 -13.806798
222 1 1 0.000000 0.250146 0.904468 -14.054879
223 1 1 0.000000 0.751325 0.686177 -14.892237
224 1 1 0.000000 1.730633 0.489189 -14.845848
225 1 1 0.000000 1.165675 -0.092033 -14.260183
226 1 1 0.000000 1.669018 -0.930949 -14.467221
227 1 1 0.000000 2.065975 -1.243924 -15.330050
228 1 1 0.000000 1.182471 -0.783581 -15.243416
229 1 1 0.000000 0.732648 -1.377965 -14.576807
230 1 1 0.000000 0.851580 -1.512024 -13.592996
231 1 1 0.000000 1.439960 -0.828587 -13.160882
232 1 1 0.000000 1.355166 -0.163253 -13.902596
233 1 1 0.000000 1.044512 -0.494946 -14.793368
234 1 1 0.000000 1.995320 -0.747722 -14.972447
235 1 1 0.000000 2.905203 -1.155262 -14.894841
236 1 1 0.000000 3.476990 -1.921663 -14.602111
237 1 1 0.000000 2.636058 -2.353648 -14.276193
238 1 1 0.000000 2.805487 -1.770995 -15.071057
239 1 1 0.000000 3.126976 -1.108205 -15.747337
240 1 1 0.000000 2.348214 -1.176781 -16.370896
241 1 1 0.000000 1.523586 -1.079319 -16.928114
242 1 1 0.000000 0.902577 -1.781772 -17.275833
243 1 1 0.000000 0.660269 -1.649966 -16.314628
244 1 1 0.000000 0.511649 -1.189410 -15.439528
245 1 2 0.000000 0.776367 -2.112012 -15.720115
246 1 1 0.000000 0.591679 -1.213378 -16.118044
247 1 1 0.000000 -0.295183 -1.375109 -15.685241
248 1 1 0.000000 -0.175359 -1.010678 -14.761752
249 1 1 0.000000 0.719863 -1.150634 -14.338681
250 1 1 0.000000 1.624429 -1.352216 -14.714346
251 1 1 0.000000 1.599207 -1.507606 -15.701878
252 1 1 0.000000 1.679681 -0.599904 -15.290051
253 1 1 0.000000 2.497667 -0.470272 -14.729608
254 1 1 0.000000 2.494920 -0.696636 -15.703647
255 1 1 0.000000 1.771228 -1.365561 -15.873381
256 1 1 0.000000 2.468838 -1.415132 -15.158619
257 1 1 0.000000 2.601248 -1.232409 -14.184412
258 1 1 0.000000 2.610716 -0.779556 -13.292877
259 1 1 0.000000 2.772490 -1.384767 -14.072331
260 1 1 0.000000 3.272763 -2.248343 -14.135283
261 1 1 0.000000 3.342528 -2.140120 -15.126959
262 1 1 0.000000 3.433906 -1.202727 -14.790888
263 1 1 0.000000 3.691360 -0.558196 -14.070959
264 1 1 0.000000 3.702259 0.251830 -13.484667
265 1 1 0.000000 2.981000 0.023436 -12.830738
266 1 1 0.000000 2.275420 -0.684916 -12.850591
267 1 1 0.000000 1.699864 -1.487025 -12.691354
268 1 1 0.000000 2.631679 -1.596198 -12.345228
269 1 1 0.000000 3.463693 -1.809132 -11.832967
270 1 1 0.000000 2.475186 -1.738813 -11.966796
271 1 1 0.000000 2.828182 -2.015158 -12.860679
272 1 1 0.000000 2.335837 -1.731495 -12.037799
273 1 1 0.000000 1.598472 -1.562220 -11.383857
274 1 1 0.000000 2.326080 -0.906997 -11.180706
275 1 1 0.000000 1.969881 -0.819722 -10.250381
276 1 1 0.000000 1.533313 0.072242 -10.367885
277 1 1 0.000000 1.880003 -0.230634 -11.255619
278 1 1 0.000000 2.117415 0.711697 -11.491514
279 1 1 0.000000 2.739175 0.707228 -10.708318
280 1 1 0.000000 3.455517 0.048767 -10.939153
281 1 1 0.000000 3.998035 -0.714184 -11.290692
282 1 1 0.000000 3.002504 -0.622740 -11.314257
283 1 1 0.000000 3.530790 0.083802 -10.843395
284 1 1 0.000000 3.428930 -0.665126 -10.188619
285 1 1 0.000000 4.193523 -0.025852 -10.106599
286 1 1 0.000000 3.968929 0.376290 -9.218996
287 1 1 0.000000 4.205335 0.843039 -10.071203
288 1 1 0.000000 5.154676 0.798822 -10.382325
289 1 1 0.000000 6.023104 0.790499 -9.886579
290 1 1 0.000000 5.857797 0.033004 -9.255014
291 1 1 0.000000 6.121117 -0.838755 -9.668171
292 1 1 0.000000 6.784244 -1.170441 -8.997167
293 1 1 0.000000 7.015702 -0.935983 -8.052997
294 1 1 0.000000 6.953649 -0.455915 -7.177963
295 1 1 0.000000 5.992385 -0.719634 -7.097825
296 1 1 0.000000 5.126364 -0.755473 -6.599103
297 1 1 0.000000 4.934600 -1.566140 -6.045888
298 1 1 0.000000 5.182070 -0.655788 -6.377578
299 1 1 0.000000 5.711140 0.024603 -5.870476
300 1 1 0.000000 6.371564 0.240677 -5.151343
301 1 1 0.000000 6.491861 0.625707 -6.066373
302 1 1 0.000000 6.427240 0.618935 -7.064260
303 1 1 0.000000 6.014911 1.509128 -6.870507
304 1 1 0.000000 6.903666 1.179673 -7.189214
305 1 1 0.000000 7.462928 0.599557 -6.597022
306 1 1 0.000000 6.467393 0.505529 -6.588698
307 1 1 0.000000 6.070631 1.192051 -5.979379
308 1 1 0.000000 5.932431 1.246220 -4.990458
309 1 1 0.000000 6.142871 2.164107 -4.654008
310 1 1 0.000000 5.968210 1.996431 -3.683761
311 1 1 0.000000 6.074726 2.663713 -2.946612
312 1 1 0.000000 5.144759 3.021633 -2.862623
313 1 1 0.000000 4.491218 3.651907 -3.281715
314 1 1 0.000000 5.338232 3.268016 -3.649404
315 1 1 0.000000 5.796516 3.996930 -3.140818
316 1 1 0.000000 6.523781 4.187822 -2.481541
317 1 1 0.000000 5.837651 3.483565 -2.299201
318 1 1 0.000000 5.462546 3.850901 -1.448108
319 1 1 0.000000 4.587339 4.284353 -1.662892
320 1 1 0.000000 5.028615 4.954456 -1.066035
321 1 1 0.000000 5.145026 5.943943 -1.151853
322 1 1 0.000000 4.407576 6.617586 -1.200554
323 1 1 0.000000 4.821260 6.847946 -0.319759
324 1 1 0.000000 4.891598 7.074844 -1.291134
325 1 1 0.000000 4.442309 6.398126 -0.707874
326 1 1 0.000000 3.823238 6.830563 -1.363426
327 1 1 0.000000 2.979284 6.373123 -1.083266
328 1 1 0.000000 2.946889 6.023722 -2.019679
329 1 1 0.000000 2.216306 6.678600 -1.826333
330 1 1 0.000000 2.087867 5.813231 -1.341937
331 1 1 0.000000 1.486549 5.713446 -2.134691
332 1 1 0.000000 1.371626 6.145852 -3.029017
333 1 1 0.000000 1.670733 5.818163 -3.925205
334 1 1 0.000000 2.170671 5.975049 -4.776938
335 1 1 0.000000 1.988283 6.676780 -5.465638
336 1 1 0.000000 2.621942 7.061634 -6.136729
337 1 1 0.000000 2.758135 7.590233 -6.974604
338 1 1 0.000000 3.550910 7.888349 -7.506239
339 1 1 0.000000 3.141498 7.372288 -8.258611
340 1 1 0.000000 2.580305 7.432566 -9.084098
341 1 1 0.000000 3.327480 6.790617 -9.256234
342 1 1 0.000000 2.714756 6.214045 -9.796728
343 1 1 0.000000 2.602328 5.221082 -9.759507
344 1 1 0.000000 2.125072 4.346036 -9.678760
345 1 1 0.000000 2.637845 4.193436 -10.523613
346 1 1 0.000000 3.302073 3.446259 -10.500631
347 1 1 0.000000 3.047128 2.556956 -10.120971
348 1 1 0.000000 2.888584 1.576286 -10.235647
349 1 1 0.000000 2.005416 1.107247 -10.231684
350 1 1 0.000000 1.596045 0.860584 -11.110076
351 1 1 0.000000 2.186768 1.337284 -11.761078
352 1 1 0.000000 3.119459 1.258695 -12.113089
353 1 1 0.000000 3.785832 1.204147 -12.856710
354 1 1 0.000000 3.807343 2.127308 -12.472898
355 1 1 0.000000 3.232653 2.565907 -11.781984
356 1 3 0.000000 2.722546 3.164319 -11.164170
357 1 3 0.000000 3.566921 3.254884 -10.636127
358 1 1 0.000000 4.389869 3.817205 -10.555178
359 1 3 0.000000 4.056602 3.940733 -9.620473
360 1 1 0.000000 4.316092 4.573856 -8.891213
361 1 1 0.000000 4.325121 5.238428 -8.144044
362 1 1 0.000000 4.262636 6.172805 -7.793279
363 1 1 0.000000 4.761420 6.148053 -8.659651
364 1 1 0.000000 4.080269 5.448020 -8.445205
365 1 1 0.000000 4.418475 4.758301 -7.804968
366 1 1 0.000000 5.308451 4.904341 -8.236958
367 1 1 0.000000 4.473855 4.844514 -8.784562
368 1 1 0.000000 3.992691 4.258786 -9.436792
369 1 1 0.000000 3.227895 3.634183 -9.278811
370 1 3 0.000000 2.313602 4.026088 -9.176435
371 1 1 0.000000 1.804699 3.938569 -10.032799
372 1 1 0.000000 1.242490 4.602177 -10.526302
373 1 1 0.000000 1.452040 4.189335 -11.412671
374 1 1 0.000000 2.376787 3.962281 -11.718104
375 1 1 0.000000 2.713700 3.307672 -11.041364
376 1 1 0.000000 3.621853 3.397731 -10.632528
377 1 1 0.000000 3.960126 3.417986 -11.573358
378 1 1 0.000000 4.257246 3.491836 -12.525338
379 1 1 0.000000 4.364164 3.987402 -13.387303
380 1 1 0.000000 3.743992 3.924976 -12.605325
381 1 1 0.000000 2.931572 3.737478 -12.053221
382 1 1 0.000000 3.430419 2.879962 -12.178989
383 1 1 0.000000 3.730241 1.971672 -11.887243
384 1 1 0.000000 2.932253 2.406292 -12.304759
385 1 1 0.000000 3.166701 2.835540 -13.176986
386 1 1 0.000000 3.443465 3.749510 -12.880235
387 1 1 0.000000 3.535748 4.557776 -13.461775
388 1 1 0.000000 3.631038 4.358147 -14.437002
389 1 1 0.000000 3.451730 4.479655 -15.413263
390 1 1 0.000000 3.723053 5.424748 -15.595426
391 1 1 0.000000 3.666236 5.265843 -16.581084
392 1 1 0.000000 4.624958 5.381343 -16.321255
393 1 1 0.000000 4.502446 6.341206 -16.573552
394 1 1 0.000000 3.861064 5.706793 -17.005002
395 1 1 0.000000 3.392193 6.572498 -17.180260
396 1 1 0.000000 2.791300 7.358053 -17.328009
397 1 1 0.000000 2.096710 7.477521 -18.037426
398 1 1 0.000000 2.334728 7.534690 -19.007003
399 1 1 0.000000 2.984859 8.138146 -18.545299
400 1 1 0.000000 3.965637 7.947696 -18.502828
401 1 1 0.000000 3.220080 8.607159 -18.599020
402 1 1 0.000000 2.658717 7.818001 -18.349818
403 1 1 0.000000 2.235681 7.779071 -17.444541
404 1 1 0.000000 1.600551 8.365609 -16.941965
405 1 1 0.000000 1.388338 8.679114 -16.016395
406 1 1 0.000000 1.994466 8.200114 -16.651350
407 1 1 0.000000 1.983544 7.223138 -16.438280
408 1 1 0.000000 1.392600 6.456895 -16.185976
409 1 1 0.000000 0.703212 7.118119 -16.481826
410 1 1 0.000000 1.430424 6.524191 -16.825938
411 1 1 0.000000 2.268772 6.246089 -16.357077
412 1 1 0.000000 2.354031 7.204650 -16.085248
413 1 1 0.000000 2.126284 6.240144 -16.218888
414 1 1 0.000000 3.011316 5.778041 -16.162514
415 1 1 0.000000 2.432434 5.016569 -16.454156
416 1 1 0.000000 2.432919 4.403820 -17.244433
417 1 1 0.000000 2.402330 3.843683 -18.072268
418 1 1 0.000000 2.168399 4.201493 -18.976286
419 1 1 0.000000 2.464078 4.924810 -19.600295
420 1 1 0.000000 2.340728 3.957291 -19.379634
421 1 1 0.000000 1.717828 3.666311 -20.105806
422 1 1 0.000000 1.403062 4.352590 -20.761508
423 1 1 0.000000 0.897409 4.709144 -19.975897
424 1 1 0.000000 0.274318 5.327847 -20.454400
425 1 1 0.000000 1.253232 5.145912 -20.361515
426 1 3 0.000000 1.172076 5.763536 -21.143790
427 1 1 0.000000 0.911632 6.722724 -21.033659
428 1 1 0.000000 0.502771 6.171311 -20.306488
429 1 4 0.000000 0.118499 5.548751 -19.624760
430 1 1 0.000000 0.544721 6.443410 -19.490894
431 1 1 0.000000 1.370105 6.145896 -19.011075
432 1 1 0.000000 1.720707 6.126681 -18.074747
433 1 1 0.000000 2.409641 5.501708 -17.707626
434 1 1 0.000000 2.530067 6.291714 -17.106472
435 1 1 0.000000 1.915563 6.492426 -16.343518
436 1 1 0.000000 1.692035 6.989527 -17.181925
437 1 1 0.000000 1.955208 7.171670 -16.234526
438 1 1 0.000000 1.191787 6.545101 -16.077684
439 1 1 0.000000 0.493325 6.429520 -16.783935
440 1 1 0.000000 0.100689 7.228252 -16.328014
441 1 1 0.000000 -0.800329 7.491685 -16.672642
442 1 1 0.000000 -1.487949 6.960481 -17.167617
443 1 1 0.000000 -1.341600 6.532480 -18.059467
444 1 1 0.000000 -1.221284 5.632146 -18.477704
445 1 4 0.000000 -2.211364 5.621847 -18.617832
446 1 1 0.000000 -1.806409 6.466126 -18.968838
447 1 1 0.000000 -2.180195 6.038812 -18.145620
448 1 1 0.000000 -2.468922 6.139498 -17.193518
449 1 1 0.000000 -2.256427 5.355138 -16.610745
450 1 1 0.000000 -1.814079 5.108760 -15.748407
451 1 1 0.000000 -2.490942 4.378741 -15.653923
452 1 1 0.000000 -3.180590 3.841879 -15.167954
453 1 1 0.000000 -3.236641 3.329736 -14.310885
454 1 4 0.000000 -3.182488 2.333345 -14.376248
455 1 1 0.000000 -2.531498 1.983524 -13.702574
456 1 1 0.000000 -2.819807 1.107151 -13.316767
457 1 1 0.000000 -2.630409 0.517602 -14.101981
458 1 1 0.000000 -1.858519 0.860176 -14.637545
459 1 1 0.000000 -2.150822 1.567657 -13.994094
460 1 1 0.000000 -1.765663 2.490450 -13.983778
461 1 1 0.000000 -1.350653 2.585152 -13.078903
462 1 1 0.000000 -2.191774 3.012384 -12.747256
463 1 2 0.000000 -1.846475 2.329548 -12.103436
464 1 1 0.000000 -2.583759 2.035794 -12.711811
465 1 1 0.000000 -2.693868 1.461991 -13.523369
466 1 1 0.000000 -2.373160 2.111413 -14.212859
467 1 2 0.000000 -2.454660 2.994024 -13.749873
468 1 1 0.000000 -2.272662 3.352645 -12.834303
469 1 2 0.000000 -1.710357 2.605019 -12.480937
470 1 1 0.000000 -0.945868 3.112789 -12.083789
471 1 1 0.000000 -1.536876 2.723475 -11.377287
472 1 1 0.000000 -1.476463 1.803709 -10.989499
473 1 1 0.000000 -0.907555 1.049388 -10.661864
474 1 1 0.000000 -0.696108 0.369303 -9.959885
475 1 1 0.000000 -0.076139 -0.412805 -9.897079
476 1 1 0.000000 0.728140 -0.900309 -10.236895
477 1 1 0.000000 0.950369 -1.124418 -9.288006
478 1 1 0.000000 1.035580 -0.199693 -8.917031
479 1 1 0.000000 0.292537 0.227802 -9.431944
480 1 1 0.000000 0.071425 0.123836 -10.401635
481 1 1 0.000000 -0.291639 -0.798575 -10.533321
482 1 1 0.000000 -1.076870 -0.959390 -9.935366
483 1 1 0.000000 -1.849960 -1.579661 -9.802718
484 1 1 0.000000 -1.098913 -1.927357 -9.241438
485 1 1 0.000000 -0.211060 -1.477659 -9.338850
486 1 1 0.000000 -0.838776 -0.709579 -9.212258
487 1 1 0.000000 -0.696332 -1.641240 -8.878015
488 1 1 0.000000 -1.033195 -1.428049 -7.960914
489 1 1 0.000000 -1.148351 -2.102074 -8.690592
490 1 1 0.000000 -0.746319 -3.012633 -8.594407
491 1 1 0.000000 -0.140517 -2.394020 -8.094086
492 1 1 0.000000 0.848912 -2.284720 -7.998772
493 1 1 0.000000 0.187441 -2.824034 -8.519922
494 1 1 0.000000 0.455603 -2.532681 -9.438182
495 1 1 0.000000 1.100716 -2.580600 -8.675599
496 1 1 0.000000 1.820534 -3.148500 -9.074788
497 1 1 0.000000 2.318333 -3.496103 -9.869375
498 1 1 0.000000 2.181559 -4.121428 -10.637660
499 1 1 0.000000 1.277493 -4.143659 -11.064473
500 1 1 0.000000 0.788343 -3.510145 -11.663967
501 1 1 0.000000 1.089653 -2.770649 -11.062007
502 1 1 0.000000 1.966764 -3.217734 -10.886529
503 1 1 0.000000 2.031794 -2.220366 -10.854462
504 1 1 0.000000 2.647840 -1.985501 -11.606344
505 1 1 0.000000 3.544828 -1.584283 -11.420775
506 1 1 0.000000 4.420321 -1.339306 -11.004244
507 1 1 0.000000 4.842476 -0.485362 -11.308489
508 1 1 0.000000 5.312934 -0.247078 -10.458848
509 1 1 0.000000 4.941568 -0.513362 -9.569364
510 1 1 0.000000 4.021884 -0.122024 -9.537174
511 1 1 0.000000 4.037637 -0.778013 -8.782568
512 1 1 0.000000 4.317448 -1.648202 -8.377009
513 1 1 0.000000 3.716973 -1.780871 -7.588448
514 1 1 0.000000 4.369377 -1.727072 -6.832489
515 1 1 0.000000 4.869277 -1.033763 -7.351548
516 1 1 0.000000 4.803098 -1.707231 -8.087795
517 1 1 0.000000 4.562083 -0.907864 -8.638180
518 1 1 0.000000 5.332365 -1.468243 -8.333811
519 1 1 0.000000 4.657660 -1.979555 -7.801521
520 1 1 0.000000 3.810711 -2.501223 -7.904186
521 1 1 0.000000 4.159910 -2.690852 -8.821847
522 1 1 0.000000 3.673771 -1.826074 -8.947658
523 1 1 0.000000 3.783625 -1.249737 -9.757453
524 1 1 0.000000 3.967679 -0.815340 -10.639170
525 1 1 0.000000 4.681819 -0.978867 -11.319804
526 1 1 0.000000 5.642983 -1.129359 -11.088471
527 1 1 0.000000 5.904628 -0.165040 -11.048080
528 1 1 0.000000 5.137588 0.152929 -11.605346
529 1 1 0.000000 5.675187 0.796407 -12.150252
530 1 1 0.000000 5.747945 0.623427 -13.132486
531 1 1 0.000000 6.572459 0.617041 -13.698291
532 1 1 0.000000 7.551569 0.612931 -13.901583
533 1 1 0.000000 7.643214 1.608488 -13.879982
534 1 1 0.000000 8.605111 1.857832 -13.767812
535 1 1 0.000000 9.414107 1.980413 -14.342702
536 1 1 0.000000 9.962848 2.067353 -13.511242
537 1 1 0.000000 10.432391 1.510108 -12.826402
538 1 1 0.000000 10.572491 0.643739 -13.305753
539 1 1 0.000000 10.199347 0.740051 -14.228514
540 1 1 0.000000 9.246852 0.652548 -13.936799
541 1 1 0.000000 8.305903 0.670215 -13.598713
542 1 1 0.000000 7.430313 0.710479 -13.117339
543 1 1 0.000000 6.752738 1.315732 -12.699535
544 1 1 0.000000 6.727840 2.209738 -12.252173
545 1 1 0.000000 6.354922 1.289227 -12.135597
546 1 1 0.000000 6.504317 0.321579 -11.932276
547 1 1 0.000000 5.893228 -0.284009 -11.422538
548 1 1 0.000000 5.398945 -0.405716 -12.283277
549 1 1 0.000000 5.058486 -1.258340 -11.886894
550 1 1 0.000000 4.672608 -1.984974 -11.318474
551 1 1 0.000000 4.016686 -2.651383 -10.963980
552 1 1 0.000000 3.138462 -2.310816 -11.299744
553 1 1 0.000000 4.061554 -2.051578 -11.583816
554 1 1 0.000000 3.390618 -1.408002 -11.952127
555 1 1 0.000000 2.929361 -1.625514 -12.812319
556 1 1 0.000000 3.254640 -1.852684 -13.730244
557 1 1 0.000000 4.021437 -2.373739 -14.105108
558 1 1 0.000000 4.276116 -1.846137 -14.915525
559 1 1 0.000000 4.951753 -1.244449 -14.489513
560 1 1 0.000000 5.543446 -1.871213 -14.996529
561 1 1 0.000000 6.095631 -2.007553 -15.819027
562 1 1 0.000000 6.152697 -2.638667 -16.592615
563 1 1 0.000000 6.798954 -3.128276 -17.177964
564 1 1 0.000000 7.488874 -3.833437 -17.014378
565 1 1 0.000000 8.256238 -4.383902 -17.343223
566 1 1 0.000000 7.397744 -4.592874 -17.811537
567 1 1 0.000000 6.651680 -4.020252 -18.151382
568 1 1 0.000000 6.192178 -3.615542 -17.360770
569 1 1 0.000000 6.318009 -3.239184 -16.442880
570 1 1 0.000000 6.953879 -3.979812 -16.225762
571 1 1 0.000000 6.233342 -3.286424 -16.231979
572 1 1 0.000000 7.038609 -2.927330 -15.760177
573 1 1 0.000000 6.962200 -2.122246 -15.171958
574 1 1 0.000000 6.171304 -2.449494 -14.654858
575 1 1 0.000000 5.674048 -2.634968 -13.807311
576 1 1 0.000000 5.983424 -1.765645 -14.192753
577 1 1 0.000000 6.354369 -1.058171 -13.591188
578 1 1 0.000000 6.726722 -0.418894 -12.918374
579 1 1 0.000000 5.777958 -0.173129 -13.116989
580 1 1 0.000000 5.579434 0.749674 -13.447175
581 1 1 0.000000 4.749701 0.528300 -12.934791
582 1 1 0.000000 5.495952 0.027465 -13.373282
583 1 1 0.000000 5.899587 -0.680148 -13.953250
584 1 1 0.000000 5.669098 0.002501 -13.259806
585 1 1 0.000000 5.058321 -0.048040 -12.469618
586 1 1 0.000000 4.128855 0.311243 -12.553338
587 1 1 0.000000 3.417472 -0.373282 -12.712585
588 1 1 0.000000 3.411526 0.623985 -12.786228
589 1 1 0.000000 3.587477 1.019408 -13.687716
590 1 1 0.000000 4.160243 0.505199 -13.049337
591 1 1 0.000000 5.112017 0.746344 -13.239010
592 1 1 0.000000 5.919982 0.245711 -13.549748
593 1 1 0.000000 5.118210 0.507861 -13.012684
594 1 1 0.000000 5.683987 0.412686 -12.193637
595 1 3 0.000000 6.679545 0.493239 -12.242360
596 1 1 0.000000 6.248086 -0.071755 -11.539064
597 1 1 0.000000 5.600488 -0.597256 -10.987281
598 1 1 0.000000 4.932077 -0.496019 -11.724152
599 1 1 0.000000 4.547132 -1.153313 -11.076246
600 1 1 0.000000 3.848548 -1.632639 -11.607497
601 1 1 0.000000 4.333593 -2.371370 -12.075480
602 1 1 0.000000 3.939158 -3.187245 -12.498289
603 1 1 0.000000 3.668870 -3.279998 -13.456590
604 1 1 0.000000 4.343321 -2.730095 -13.949259
605 1 1 0.000000 5.033045 -2.661492 -14.670075
606 1 1 0.000000 5.873113 -2.351234 -15.115075
607 1 3 0.000000 6.525833 -1.798405 -14.597063
608 1 1 0.000000 6.772536 -2.427704 -13.860096
609 1 1 0.000000 7.315442 -2.223061 -13.045618
610 1 3 0.000000 7.566840 -2.251676 -12.078158
611 1 1 0.000000 8.270905 -2.900329 -11.789122
612 1 1 0.000000 8.817668 -3.425023 -12.441615
613 1 1 0.000000 8.399321 -4.329160 -12.528338
614 1 2 0.000000 7.447666 -4.206661 -12.810023
615 1 1 0.000000 8.303554 -4.582568 -12.454847
616 1 1 0.000000 8.738632 -3.774252 -12.851498
617 1 1 0.000000 8.531431 -2.958367 -13.391313
618 1 1 0.000000 9.334880 -3.232451 -13.919847
619 1 1 0.000000 8.480597 -3.745756 -13.837874
620 1 1 0.000000 8.416687 -4.259552 -12.982346
621 1 1 0.000000 7.527354 -4.545507 -12.625530
622 1 1 0.000000 7.019969 -5.151023 -12.012415
623 1 1 0.000000 6.084744 -4.829624 -12.160930
624 1 1 0.000000 6.963378 -4.358516 -12.083089
625 1 1 0.000000 7.182589 -3.383959 -12.129826
626 1 1 0.000000 6.316968 -2.883289 -12.135294
627 1 1 0.000000 6.192917 -1.894638 -12.050556
628 1 1 0.000000 5.519221 -1.743333 -12.773909
629 1 1 0.000000 5.779840 -0.778391 -12.804964
630 1 1 0.000000 5.490457 -0.258116 -13.608438
631 1 1 0.000000 4.818374 -0.423285 -14.330258
632 1 1 0.000000 3.926614 -0.491238 -13.882882
633 1 1 0.000000 3.405232 0.182544 -14.406503
634 1 1 0.000000 3.757478 1.113700 -14.500691
635 1 1 0.000000 3.397195 1.448476 -15.371393
636 1 1 0.000000 2.792805 1.766882 -14.641099
637 1 1 0.000000 2.383099 2.391136 -15.306267
638 1 1 0.000000 2.009141 1.476608 -15.460519
639 1 1 0.000000 2.076887 0.817433 -16.209451
640 1 1 0.000000 2.148114 1.739791 -16.589164
641 1 1 0.000000 1.175769 1.700804 -16.358889
642 1 1 0.000000 0.291311 1.793960 -16.816115
643 1 1 0.000000 0.560248 2.738649 -16.628399
644 1 1 0.000000 0.672434 3.705446 -16.858002
645 1 1 0.000000 -0.137839 3.439179 -17.380075